21
gfn2-159-159-wb97xd.log	Energy: -312834.5236169
O          1.04192       -0.31518        1.35783
O         -1.12359       -1.54644        0.35506
O          1.15720        2.07521        0.14763
O         -2.80681        0.41329       -0.26859
C          0.87792       -0.35562       -0.05639
C         -0.62612       -0.44127       -0.38818
C          1.53794        0.92807       -0.57723
C          1.59771       -1.57258       -0.64107
C         -1.44830        0.79657       -0.05155
H         -0.73249       -0.64302       -1.46500
H          1.25801        1.09444       -1.62271
H          2.62804        0.79163       -0.53817
H          1.10454       -2.49583       -0.32799
H          1.59695       -1.53684       -1.73629
H          2.63297       -1.58964       -0.29105
H         -1.28775        1.07927        0.99525
H         -1.16444        1.63688       -0.69149
H          0.41896       -0.95468        1.72734
H         -2.08575       -1.46744        0.35690
H          1.23608        1.83983        1.08048
H         -3.38973        1.09942        0.06371

