21
gfn2-4-4-wb97xd.log	Energy: -312836.1475079
O         -1.85758       -1.06366       -0.49632
O          0.74240       -1.68578       -0.77359
O          0.08876        2.04818       -0.50203
O          2.26823        0.45549       -0.09286
C         -0.92676       -0.16387        0.09101
C          0.35756       -0.97765        0.39435
C         -0.73240        0.96588       -0.93841
C         -1.57102        0.35681        1.36922
C          1.57123       -0.21558        0.93823
H          0.06199       -1.73066        1.13576
H         -1.72533        1.32778       -1.22716
H         -0.24950        0.56567       -1.83393
H         -1.75523       -0.46908        2.06143
H         -0.94002        1.09325        1.87682
H         -2.53497        0.81901        1.13536
H          1.27578        0.46969        1.74221
H          2.27218       -0.94295        1.35602
H         -1.35108       -1.63104       -1.09391
H          1.45668       -1.17308       -1.17938
H         -0.39451        2.59095        0.12618
H          1.75799        1.25310       -0.30741

