21
gfn2-13-13-wb97xd.log	Energy: -312834.8213394
O         -1.61490        0.21582        1.25610
O          0.76886       -1.07742        1.08550
O         -1.23521       -1.74678       -0.76601
O          2.97304        0.12943       -0.19331
C         -0.81650        0.51068        0.11165
C          0.65507        0.20837        0.47386
C         -1.33047       -0.35506       -1.04870
C         -1.01680        1.98440       -0.22389
C          1.65898        0.31098       -0.67054
H          0.95841        0.91646        1.25358
H         -0.74741       -0.18369       -1.95754
H         -2.37120       -0.07733       -1.25645
H         -0.59974        2.61461        0.56583
H         -0.54535        2.25232       -1.17433
H         -2.08639        2.19849       -0.29746
H          1.42241       -0.43589       -1.44436
H          1.62428        1.30238       -1.13028
H         -1.10770       -0.39256        1.80979
H          0.37833       -1.71519        0.46673
H         -1.92255       -1.95538       -0.12442
H          2.96078       -0.64879        0.37646

