21
gfn2-12-12-wb97xd.log	Energy: -312834.1331636
O          1.03674       -0.31689        1.36053
O         -1.13642       -1.54815        0.31654
O          1.16759        2.07323        0.12328
O         -2.83927        0.48938       -0.12897
C          0.87879       -0.35992       -0.05340
C         -0.62574       -0.42618       -0.38970
C          1.55537        0.91338       -0.57635
C          1.58696       -1.58662       -0.63267
C         -1.45129        0.80452       -0.01122
H         -0.72271       -0.59947       -1.47515
H          1.29657        1.06734       -1.62929
H          2.64365        0.77084       -0.51535
H          1.08774       -2.50386       -0.31189
H          1.58334       -1.55866       -1.72818
H          2.62327       -1.60976       -0.28597
H         -1.28926        1.05598        1.03860
H         -1.17850        1.67280       -0.61617
H          0.42039       -0.96310        1.72921
H         -2.09072       -1.41411        0.39048
H          1.23850        1.85977        1.06182
H         -3.10593        0.57053       -1.04900

