30
109-161-38739-wb97xd.log	Energy: -456716.1655458
O         -2.31379       -1.32756       -0.45249
O          0.32114       -1.77465       -0.51209
O         -2.72111        1.33739       -0.42522
O         -0.18658        1.80108       -1.14212
C         -1.52241       -0.59268        0.48001
C         -0.10346       -0.46392       -0.13072
C         -2.21537        0.75371        0.75556
C         -1.44790       -1.39567        1.77509
C          0.05341        0.42925       -1.37049
H          0.59174       -0.12372        0.64585
H         -1.52649        1.42789        1.28047
H         -3.07514        0.56507        1.40566
H         -0.91674       -2.33772        1.62360
H         -0.92131       -0.82350        2.54655
H         -2.45803       -1.61684        2.12846
H          1.07058        0.27254       -1.75341
H         -0.64579        0.10197       -2.14766
H         -2.78129       -0.66322       -0.98260
H         -0.45060       -2.20232       -0.91236
H         -1.96578        1.79085       -0.84239
H          0.48512        2.13156       -0.50875
O          3.50211        0.39412        0.86758
H          3.38053       -0.39659        0.29646
H          3.79207        0.06941        1.72292
O          3.02292       -1.81586       -0.62133
H          3.36872       -1.91890       -1.51056
H          2.05376       -1.94967       -0.66971
O          1.72567        2.42717        0.69094
H          2.21813        3.24662        0.60521
H          2.39208        1.70898        0.77348

