30
7-548-90937-wb97xd.log	Energy: -456714.6750358
O          3.31477       -0.85875       -0.18483
O          2.21331        1.40873       -1.17152
O         -0.32820       -1.23472       -0.19002
O         -0.39395        1.39403       -0.48440
C          2.00826       -0.53454        0.27665
C          1.87336        1.00870        0.14866
C          1.02587       -1.34261       -0.59546
C          1.92644       -0.97694        1.73036
C          0.54629        1.64596        0.55171
H          2.65226        1.42030        0.80114
H          1.30964       -2.39454       -0.51467
H          1.14190       -1.04398       -1.64693
H          0.90104       -0.91725        2.10296
H          2.25912       -2.01572        1.80715
H          2.57961       -0.36510        2.35972
H          0.19836        1.24240        1.51014
H          0.69464        2.72644        0.65993
H          3.46862       -0.32792       -0.97786
H          1.38902        1.46907       -1.67158
H         -0.58463       -0.30164       -0.34928
H         -1.26920        1.79472       -0.26828
O         -4.13957       -0.22134        0.42232
H         -4.38046       -0.48657        1.31278
H         -3.70304       -0.99985        0.01043
O         -2.75167       -2.29522       -0.67507
H         -1.79903       -2.09412       -0.54712
H         -2.87733       -3.22862       -0.49361
O         -2.85393        2.14346        0.19526
H         -3.35466        1.29853        0.27868
H         -3.39325        2.73088       -0.33893

