28
20-227-71496-wb97xd.log	Energy: -752195.3517330
O         -2.96543       -0.96398        1.33591
O         -0.69577        0.55695        1.62974
O         -0.87633       -1.07505       -1.60297
O         -0.11761        1.41206       -1.17641
C         -2.41696       -0.34395        0.16265
C         -1.69553        0.92707        0.68646
C         -1.49388       -1.44602       -0.37897
C         -3.50757        0.00649       -0.84110
C         -1.10963        1.92035       -0.30957
H         -2.47237        1.49965        1.21972
H         -2.11490       -2.33386       -0.53575
H         -0.73359       -1.68463        0.37063
H         -4.12045       -0.87707       -1.03934
H         -4.15534        0.80697       -0.46408
H         -3.07567        0.33369       -1.79019
H         -1.93560        2.34562       -0.89410
H         -0.65059        2.73358        0.25822
H         -3.82775       -0.58337        1.52901
H         -1.10028       -0.08122        2.23371
H          0.05258       -1.35502       -1.54350
H         -0.43412        0.55536       -1.54342
O          2.44092        1.11118       -0.72423
S          2.54880       -0.25605        0.05777
O          1.67346       -1.23249       -0.58653
O          3.93767       -0.54817        0.24910
O          1.93894        0.08772        1.48104
H          1.47961        1.31428       -0.92055
H          0.96223        0.25335        1.43330

