24
2-224-90627-wb97xd.log	Energy: -360795.1748187
O         -1.71402       -1.57265       -0.53878
O          0.86045       -1.50428       -0.08890
O         -0.77461        1.95961       -0.89911
O          1.39540        1.31747        0.56847
C         -1.25835       -0.30855       -0.02278
C          0.00557       -0.73970        0.75710
C         -0.98540        0.61487       -1.23002
C         -2.30503        0.29274        0.90641
C          0.83533        0.34954        1.43221
H         -0.35251       -1.39182        1.56943
H         -1.87750        0.58977       -1.86915
H         -0.15118        0.19546       -1.81081
H         -2.50443       -0.37645        1.74852
H         -1.98535        1.26886        1.27678
H         -3.24123        0.44942        0.35984
H          0.19926        0.88253        2.14451
H          1.62877       -0.14833        2.00329
H         -2.49422       -1.43400       -1.08383
H          0.28770       -2.10419       -0.58440
H          0.08258        2.00313       -0.43781
H          2.17156        0.92928        0.12065
O          3.27677       -0.31583       -0.59230
H          3.59115       -0.23702       -1.49556
H          2.54069       -0.95462       -0.59397

