24
2-0-7998-wb97xd.log	Energy: -360795.3427239
O         -1.68116       -1.57885       -0.55357
O          0.86796       -1.52455       -0.03313
O         -0.77393        1.96255       -0.89077
O          1.39286        1.32547        0.58918
C         -1.24319       -0.31190       -0.02894
C          0.00350       -0.73661        0.78207
C         -0.94672        0.61412       -1.22920
C         -2.31436        0.28401        0.87552
C          0.82750        0.36107        1.45144
H         -0.37196       -1.37156        1.60021
H         -1.81790        0.57234       -1.89596
H         -0.08647        0.21317       -1.78384
H         -2.53945       -0.39331        1.70452
H         -2.00301        1.25566        1.26426
H         -3.23364        0.44886        0.30350
H          0.18517        0.89869        2.15453
H          1.61493       -0.13289        2.03573
H         -2.42909       -1.44054       -1.14225
H          0.29408       -2.09761       -0.55966
H          0.07989        2.02536       -0.42678
H          2.14546        0.93003        0.10798
O          3.16209       -0.26097       -0.78198
H          3.98949       -0.62837       -0.46381
H          2.46952       -0.93325       -0.64151

