27
1-212-72047-wb97xd.log	Energy: -408758.3032315
O          0.58985       -0.05272       -1.18868
O         -0.73833        0.60806        1.30194
O          1.92424        0.71637        1.29761
O         -2.08973       -0.43616       -1.12286
C          0.63814       -0.92258       -0.05668
C         -0.62060       -0.72722        0.83051
C          1.91912       -0.58024        0.72286
C          0.74329       -2.37427       -0.53500
C         -1.92835       -1.09137        0.12821
H         -0.51744       -1.40726        1.69186
H          2.77477       -0.69851        0.04645
H          2.03181       -1.29592        1.54372
H          1.70211       -2.52818       -1.03805
H          0.67005       -3.08161        0.29794
H         -0.04672       -2.59956       -1.25528
H         -1.95732       -2.16763       -0.06151
H         -2.75975       -0.84667        0.79968
H         -0.33189       -0.06531       -1.50856
H          0.16569        0.92479        1.49412
H          2.21861        1.34329        0.60908
H         -2.48391        0.43920       -0.94584
O          2.45233        1.92857       -1.10070
H          1.73218        1.33148       -1.38497
H          2.25227        2.80590       -1.43264
O         -2.79360        1.92239        0.08145
H         -2.69271        2.83776       -0.18635
H         -2.02544        1.69015        0.64084

