27
187-361-76972-wb97xd.log	Energy: -408756.4829432
O         -1.17985       -0.44840        1.36471
O          0.28592        1.17023       -0.56364
O         -2.02040        1.96725        0.61497
O          1.03014       -1.61918        0.36056
C         -1.57061       -0.35389        0.00461
C         -0.35690       -0.04999       -0.91551
C         -2.56814        0.81624       -0.01501
C         -2.27417       -1.63499       -0.44889
C          0.69316       -1.16002       -0.93349
H         -0.74639        0.04099       -1.94262
H         -3.48803        0.50905        0.49842
H         -2.81999        1.10228       -1.03998
H         -3.16451       -1.79756        0.16420
H         -2.57822       -1.58055       -1.50030
H         -1.61983       -2.50011       -0.31749
H          0.30460       -2.00593       -1.51267
H          1.58007       -0.78091       -1.45688
H         -0.33564       -0.93450        1.38333
H         -0.37030        1.76137       -0.15269
H         -1.75662        1.67435        1.49886
H          1.93645       -1.32410        0.58891
O          3.51359       -0.64958        0.81493
H          4.32178       -1.08642        0.53972
H          3.50733        0.24664        0.41767
O          2.93112        1.73047       -0.31533
H          3.23669        2.18615       -1.10200
H          1.96855        1.57883       -0.42625

