27
1-203-55175-wb97xd.log	Energy: -408757.4014357
O         -1.35607       -0.73676        1.22471
O          0.29209        1.15968       -0.23258
O         -1.99234        1.85855        0.96044
O          1.11773       -1.57173        0.49841
C         -1.59887       -0.30031       -0.11781
C         -0.25524       -0.00156       -0.82849
C         -2.45863        0.97889       -0.04199
C         -2.36802       -1.40806       -0.82604
C          0.73070       -1.17280       -0.80874
H         -0.48683        0.19359       -1.88908
H         -3.47988        0.70766        0.23995
H         -2.48735        1.46404       -1.02738
H         -3.31886       -1.57712       -0.31492
H         -2.57120       -1.14108       -1.86807
H         -1.81219       -2.34870       -0.81125
H          0.29597       -2.02306       -1.35045
H          1.64127       -0.87874       -1.33983
H         -1.36318        0.06628        1.76883
H          1.19997        1.32219       -0.56085
H         -1.09234        2.10679        0.69634
H          0.33562       -1.45929        1.06771
O          2.90518        1.32413       -0.98918
H          3.30555        0.79726       -0.26165
H          3.46768        2.08414       -1.14882
O          3.50763       -0.39361        0.99789
H          3.61635       -0.12968        1.91407
H          2.65603       -0.88337        0.94631

