28
187-75-81304-wb97xd.log	Energy: -752197.6842673
O         -1.25043       -0.03064       -1.38810
O         -0.52760       -0.28999        1.53050
O         -1.59075       -2.38706        0.30320
O         -0.10785        2.10854       -0.28190
C         -2.17356       -0.05880       -0.30360
C         -1.55336        0.53914        0.99046
C         -2.64345       -1.50761       -0.07926
C         -3.37566        0.77115       -0.74823
C         -0.99226        1.95088        0.82218
H         -2.36121        0.61151        1.73424
H         -3.12252       -1.86244       -0.99818
H         -3.37523       -1.54567        0.73311
H         -3.82247        0.32071       -1.63799
H         -4.13559        0.82589        0.03661
H         -3.07417        1.78754       -1.01266
H         -1.82222        2.66100        0.72845
H         -0.42891        2.21109        1.72144
H         -0.39721       -0.44428       -1.14719
H         -0.74072       -1.22254        1.32726
H         -1.04485       -2.60043       -0.46213
H         -0.51128        1.65255       -1.04281
O          2.07659       -0.22251        1.36247
S          2.40559       -0.25989       -0.18313
O          3.74483       -0.73524       -0.35746
O          1.29730       -0.94459       -0.85519
O          2.38420        1.26629       -0.58950
H          1.08467       -0.17979        1.48400
H          1.48161        1.65601       -0.41547

