28
187-228-42000-wb97xd.log	Energy: -752193.3949388
O          0.83967        0.37488        0.86413
O          2.32177        0.32107       -1.65433
O          0.02099       -0.96570       -1.53492
O          2.84836        2.11255        0.24914
C          1.55293       -0.76509        0.40790
C          2.75087       -0.21881       -0.40319
C          0.66555       -1.66307       -0.47493
C          2.02963       -1.60949        1.59374
C          3.53876        0.87976        0.32569
H          3.41768       -1.05872       -0.62942
H         -0.12703       -2.10635        0.13429
H          1.27488       -2.47527       -0.89062
H          1.16558       -1.96996        2.15975
H          2.61171       -2.47681        1.26495
H          2.64364       -1.01528        2.27358
H          3.74577        0.59490        1.36322
H          4.49360        1.03282       -0.18326
H         -0.06174        0.13492        1.13387
H          2.25909        1.27990       -1.51251
H          0.68744       -0.35225       -1.90398
H          2.00323        1.98354        0.70613
O         -2.41242       -0.38473       -1.24172
S         -2.77315        0.15202        0.17640
O         -4.19747        0.04522        0.34666
O         -1.85150       -0.38769        1.16132
O         -2.37841        1.71363        0.09340
H         -1.40547       -0.57207       -1.35361
H         -3.09245        2.19459       -0.34948

