28
187-41-60704-wb97xd.log	Energy: -752197.0868092
O         -0.78112        0.05924        1.24750
O         -0.98893       -0.35614       -1.73808
O         -0.05550        1.96585       -0.94371
O         -1.64940       -2.33038        0.39702
C         -1.74452        0.68110        0.38844
C         -2.06797       -0.23722       -0.82473
C         -1.16024        2.03233       -0.05409
C         -3.00937        0.96418        1.20626
C         -2.57262       -1.62884       -0.43446
H         -2.87227        0.24980       -1.38947
H         -0.81671        2.56476        0.83662
H         -1.96194        2.62229       -0.51681
H         -2.78936        1.70417        1.98052
H         -3.82095        1.34647        0.57944
H         -3.35397        0.05811        1.71006
H         -3.50274       -1.56218        0.13455
H         -2.77078       -2.19202       -1.35196
H         -0.97380       -0.89835        1.26891
H         -0.19057       -0.70576       -1.29309
H         -0.30782        1.34949       -1.65542
H         -0.93008       -2.68836       -0.13562
O          1.80996        0.11177        1.51372
S          2.38285       -0.26612        0.09029
O          3.72831       -0.73070        0.24373
O          1.39265       -1.11866       -0.57543
O          2.43828        1.12719       -0.65158
H          0.81419        0.18528        1.45213
H          1.52564        1.52962       -0.69834

