34
1-SAc-334-79497-wb97xd.log	Energy: -848120.4776810
O         -1.00662       -0.23221       -1.23523
O         -1.15625        0.00046        1.67718
O         -0.37178       -2.33102        0.73623
O         -2.04958        2.04355       -0.43934
C         -2.01546       -0.88593       -0.45215
C         -2.29339       -0.04916        0.82649
C         -1.50113       -2.29301       -0.11811
C         -3.28024       -1.02757       -1.30260
C         -2.82552        1.35787        0.53309
H         -3.06099       -0.57480        1.40731
H         -1.21586       -2.78574       -1.05205
H         -2.32750       -2.86097        0.33135
H         -3.09323       -1.71066       -2.13561
H         -4.11685       -1.41580       -0.71317
H         -3.57001       -0.06226       -1.72411
H         -3.84930        1.29408        0.15073
H         -2.84720        1.91425        1.47601
H         -1.24856        0.72125       -1.24879
H         -0.41051        0.44605        1.23619
H         -0.49543       -1.62493        1.39974
H         -1.37281        2.60844       -0.00486
O          2.29288       -2.72737        0.67375
H          1.31570       -2.67169        0.57911
H          2.46878       -3.20585        1.48787
O         -0.01238        3.34818        0.75954
H          0.66003        2.64650        0.81234
H          0.41274        4.10253        0.34366
S          2.26714        0.52291       -0.32401
O          3.35530       -0.42735        0.25864
H          2.96568       -1.34589        0.46198
O          1.53059       -0.43544       -1.32607
H          0.52069       -0.39657       -1.22783
O          1.30465        0.89411        0.73092
O          2.92380        1.60989       -1.00011

