33
109-439-91094-wb97xd.log	Energy: -504677.4018174
O         -0.20672       -0.34978       -1.77419
O         -1.84039       -0.64643        1.50477
O         -0.85262        2.14212       -0.08069
O          0.81121       -2.37828       -0.30624
C         -1.27825       -0.20899       -0.82664
C         -0.79644       -0.71780        0.55897
C         -1.74204        1.25395       -0.74185
C         -2.43312       -1.04376       -1.36791
C         -0.31595       -2.17124        0.54032
H          0.05139       -0.08707        0.86466
H         -2.67672        1.28893       -0.17714
H         -1.93955        1.60693       -1.76276
H         -2.07704       -2.02916       -1.67893
H         -3.20179       -1.16922       -0.60157
H         -2.87215       -0.56114       -2.24640
H         -0.01722       -2.44300        1.55640
H         -1.13762       -2.83783        0.25206
H          0.43697        0.37622       -1.68381
H         -1.68992        0.13422        2.06780
H         -0.00646        2.20388       -0.55899
H          0.64015       -1.86250       -1.11566
O         -1.04479        1.76240        2.59306
H         -1.57101        2.41368        3.06113
H         -0.91231        2.09645        1.68172
O          1.51705        1.83337       -1.46072
H          1.81123        2.32865       -2.22828
H          2.31781        1.60726       -0.91903
O          2.99869       -1.39521        0.94262
H          2.24025       -1.81214        0.46902
H          2.85804       -1.54713        1.88003
O          3.53431        1.07724        0.07244
H          4.45541        1.08141       -0.19677
H          3.35144        0.17500        0.43071

