33
20-377-95329-wb97xd.log	Energy: -504676.6383705
O          1.98226       -0.66004       -2.03167
O          1.84250        1.63554       -0.69492
O         -0.30271       -1.43000        0.71474
O          0.66605        0.69156        1.96774
C          1.68787       -0.79371       -0.64545
C          2.24296        0.48763        0.03870
C          0.15855       -0.96908       -0.54605
C          2.40499       -2.04211       -0.15059
C          2.02230        0.64703        1.54284
H          3.33156        0.43583       -0.09460
H         -0.11958       -1.72690       -1.28258
H         -0.34505       -0.03201       -0.82666
H          2.11421       -2.89471       -0.77055
H          3.48824       -1.91547       -0.23417
H          2.14127       -2.27144        0.88431
H          2.47571       -0.19924        2.06576
H          2.54173        1.55853        1.86306
H          1.88283        0.27983       -2.23885
H          0.98236        1.97137       -0.38778
H         -0.09792       -0.72759        1.36765
H          0.21716        1.47236        1.59449
O         -0.54713        2.60695        0.40286
H         -0.64338        3.55179        0.54244
H         -1.34360        2.30249       -0.10493
O         -4.23769       -0.20320       -0.35149
H         -4.97407       -0.01515        0.23473
H         -3.77473       -0.99045        0.02108
O         -2.85777       -2.23775        0.71455
H         -1.90435       -1.98598        0.75299
H         -2.89675       -3.13917        0.38811
O         -2.60283        1.79252       -1.03152
H         -3.21359        1.06776       -0.75055
H         -2.50350        1.71498       -1.98298

