24
142-88-74408-wb97xd.log	Energy: -360795.4403506
O         -0.78694        1.45315       -0.93034
O          0.38176       -1.42650        1.03285
O          1.88177        1.11058       -0.80234
O         -2.49331       -0.67397       -0.99476
C         -0.30417        0.79575        0.24260
C         -0.29994       -0.74255        0.00699
C          1.12572        1.32274        0.38499
C         -1.11880        1.18571        1.47274
C         -1.69373       -1.36533       -0.03542
H          0.18381       -0.91248       -0.96482
H          1.64662        0.81641        1.20007
H          1.08152        2.39679        0.60372
H         -1.01232        2.25532        1.67391
H         -2.18131        0.98406        1.30964
H         -0.78401        0.61984        2.34753
H         -1.58810       -2.42152       -0.30712
H         -2.14311       -1.30847        0.96357
H         -1.59651        1.00193       -1.20992
H          1.29903       -1.57371        0.74177
H          1.29885        1.35807       -1.53332
H         -3.39118       -1.01230       -0.97629
O          2.87980       -1.33753       -0.16529
H          2.70812       -0.48021       -0.60236
H          3.31944       -1.90749       -0.79874

