24
142-17-85780-wb97xd.log	Energy: -360795.4975330
O         -0.80616        1.40643       -0.97640
O          0.37655       -1.34315        1.15481
O          1.88695        1.07251       -0.83526
O         -2.52589       -0.77633       -0.97320
C         -0.30402        0.82234        0.22695
C         -0.29384       -0.72537        0.07893
C          1.12245        1.36438        0.32978
C         -1.11013        1.27881        1.44044
C         -1.69230       -1.34677        0.03911
H          0.21107       -0.95084       -0.87161
H          1.64141        0.91508        1.17891
H          1.07505        2.45068        0.47402
H         -0.99434        2.35616        1.58846
H         -2.17543        1.07946        1.29444
H         -0.77650        0.75345        2.34040
H         -1.58877       -2.42792       -0.09864
H         -2.19897       -1.18430        0.99325
H         -1.63349        0.95077       -1.19244
H          1.28149       -1.54596        0.86124
H          1.32204        1.28790       -1.58944
H         -2.38055       -1.24505       -1.79923
O          2.76364       -1.44958       -0.27337
H          2.63825       -0.54482       -0.62273
H          3.68506       -1.53405       -0.02059

