24
20-425-82086-wb97xd.log	Energy: -360792.0307766
O          1.26825       -1.92733       -0.77809
O          1.90156        0.63802       -1.30412
O         -1.43697        0.21160        0.38056
O          0.26170        2.27536        0.11395
C          0.69838       -0.94595        0.08174
C          1.65130        0.27760        0.04701
C         -0.71128       -0.67306       -0.46647
C          0.62955       -1.55673        1.47384
C          1.22990        1.52824        0.82525
H          2.60340       -0.08195        0.45676
H         -1.22215       -1.63958       -0.53713
H         -0.62861       -0.25631       -1.48032
H          0.12001       -2.52295        1.41911
H          1.63602       -1.72628        1.86735
H          0.07418       -0.91275        2.15959
H          0.87711        1.26072        1.82861
H          2.10303        2.17779        0.93100
H          1.60401       -1.45169       -1.55007
H          1.31361        1.38361       -1.49414
H         -2.38030        0.16382        0.15479
H         -0.57142        1.77509        0.19342
O         -4.14165        0.00539       -0.31911
H         -4.56930        0.71254       -0.80952
H         -4.76987       -0.28687        0.34675

