37
1-163-83317-wb97xd.log	Energy: -896080.4819506
O          2.19902       -0.21536        1.28510
O          1.44355        0.17962       -1.59617
O          1.67282       -2.31164       -0.67409
O          2.01536        2.36280        0.50799
C          3.07084       -0.41457        0.16870
C          2.69009        0.52433       -1.00975
C          2.95488       -1.89407       -0.23928
C          4.51389       -0.15530        0.61519
C          2.74397        2.01696       -0.66556
H          3.43132        0.35697       -1.80128
H          3.20521       -2.50764        0.63132
H          3.70244       -2.09403       -1.02011
H          4.80222       -0.88853        1.37321
H          5.21629       -0.22420       -0.22179
H          4.60599        0.83619        1.06560
H          3.77751        2.31965       -0.47971
H          2.37647        2.57973       -1.53113
H          2.07181        0.74595        1.38439
H          0.71047        0.49686       -1.03915
H          1.37051       -1.64098       -1.31177
H          1.06691        2.38495        0.31721
O         -4.36805       -1.18759       -1.39921
H         -4.86661       -0.84769       -0.61759
H         -4.88928       -0.98438       -2.18026
O          0.03728       -1.78236        1.45471
H          0.79514       -1.16346        1.57801
H          0.33747       -2.26660        0.66004
O         -5.34537        0.01776        0.78838
H         -4.66209        0.71088        0.79466
H         -5.24956       -0.45235        1.62126
O         -1.97879       -0.42312        1.23863
S         -1.89349        0.63320        0.11468
O         -3.02628        1.52987        0.27007
O         -0.55588        1.22366        0.06604
O         -2.00855       -0.18264       -1.22260
H         -1.09238       -1.05320        1.30595
H         -2.93680       -0.59129       -1.33036

