37
3-SAc-488-89630-wb97xd.log	Energy: -896079.9794348
O         -1.46536       -0.35704       -1.20617
O         -1.52850       -0.14871        1.81910
O         -0.54486       -2.35968        0.54125
O         -2.15347        2.01439       -0.19985
C         -2.40311       -0.98910       -0.33159
C         -2.64208       -0.12049        0.93806
C         -1.87185       -2.38321        0.04730
C         -3.69161       -1.14919       -1.13172
C         -3.07212        1.31681        0.63390
H         -3.46159       -0.58610        1.49903
H         -1.85017       -3.00571       -0.85072
H         -2.54712       -2.84947        0.77782
H         -4.04951       -0.18422       -1.49868
H         -3.50801       -1.78499       -2.00129
H         -4.47964       -1.60411       -0.52397
H         -4.06741        1.31866        0.17175
H         -3.13479        1.86687        1.57594
H         -0.59101       -0.35806       -0.78226
H         -0.82405        0.42849        1.48459
H         -0.53657       -1.76109        1.30556
H         -1.86444        1.38088       -0.88460
O          0.03177        3.56515        0.08604
H         -0.18621        4.37164       -0.38807
H         -0.78058        3.00809        0.09693
O          1.79027       -2.28899       -0.95519
H          2.51115       -2.52788       -0.33379
H          0.94988       -2.40224       -0.46462
O          3.78590       -2.28296        0.89245
H          4.70837       -2.50751        0.75096
H          3.74541       -1.31822        1.00962
S          2.06981        0.83353       -0.10365
O          2.19616        0.12141       -1.48095
H          2.03083       -0.90979       -1.33445
O          2.18530        2.33064       -0.50335
H          1.31674        2.83011       -0.29355
O          0.72110        0.58218        0.42040
O          3.17999        0.47475        0.76207

