37
1-SAc-333-97730-wb97xd.log	Energy: -896081.0883883
O         -1.50499       -0.36635       -1.26983
O         -1.28807       -0.00705        1.73216
O         -0.81660       -2.40499        0.64085
O         -1.69064        2.12882       -0.32886
C         -2.45024       -0.80226       -0.29295
C         -2.44940        0.15588        0.93305
C         -2.13021       -2.24324        0.13954
C         -3.80987       -0.79075       -0.98707
C         -2.67082        1.62407        0.56853
H         -3.28708       -0.14179        1.57631
H         -2.21132       -2.89635       -0.73356
H         -2.86954       -2.56895        0.88499
H         -3.81674       -1.52385       -1.79758
H         -4.61611       -1.03248       -0.28791
H         -4.01306        0.18767       -1.42889
H         -3.67330        1.75732        0.14306
H         -2.61026        2.22163        1.48199
H         -0.59411       -0.58570       -1.00730
H         -0.53305        0.50375        1.38663
H         -0.69632       -1.72855        1.33025
H         -1.53026        1.43261       -0.99489
O          0.46720        3.72106       -0.06812
H          0.63223        3.91016        0.86064
H         -0.38773        3.23204       -0.10368
O          3.49060       -2.17979        0.72405
H          4.31314       -2.65881        0.59640
H          2.77073       -2.66399        0.23338
O          1.48778       -3.10172       -0.71595
H          0.65736       -3.02084       -0.20674
H          1.46784       -2.32476       -1.29072
S          1.93766        0.71322       -0.15356
O          2.20189        2.05564       -0.89104
H          1.52531        2.76654       -0.57776
O          3.39909        0.27314        0.12307
H          3.45704       -0.72868        0.37491
O          1.21435        0.97887        1.08872
O          1.29887       -0.24897       -1.05370

