37
187-274-98914-wb97xd.log	Energy: -896082.7023427
O         -1.16046       -0.26827       -1.17567
O         -1.78023       -0.01174        1.65782
O         -0.17506       -2.00245        0.90367
O         -3.01746        1.61935       -0.65063
C         -2.04409       -1.16794       -0.49590
C         -2.72943       -0.43488        0.68938
C         -1.19499       -2.34919       -0.00693
C         -3.08214       -1.69668       -1.48880
C         -3.64221        0.71420        0.25126
H         -3.36211       -1.17072        1.20200
H         -0.71078       -2.80817       -0.87484
H         -1.87244       -3.09362        0.43666
H         -2.59168       -2.31350       -2.24660
H         -3.84310       -2.30241       -0.98628
H         -3.57983       -0.87195       -2.00461
H         -4.51922        0.31361       -0.26365
H         -3.99100        1.23755        1.14929
H         -1.65596        0.55773       -1.33419
H         -1.40103        0.85529        1.41741
H         -0.52959       -1.29910        1.47927
H         -2.46699        2.23850       -0.13995
O         -1.01774        2.60348        0.95117
H         -0.87596        3.21346        1.67938
H         -0.18644        2.58434        0.42809
O          2.46172       -1.65640        1.48132
H          3.18858       -1.82743        0.84233
H          1.65640       -2.11123        1.17077
O          4.44182       -1.50867       -0.38012
H          4.41708       -1.96172       -1.22644
H          4.29556       -0.56716       -0.57741
O          1.41893       -0.10798       -1.21188
S          1.98472        1.08618       -0.35432
O          3.40392        1.12881       -0.65403
O          1.19037        2.28849       -0.58768
O          1.72420        0.67202        1.11991
H          0.41766       -0.18918       -1.13234
H          2.09247       -0.30947        1.32513

