37
187-SAc-350-97396-wb97xd.log	Energy: -896080.2792337
O         -1.47759       -0.02972        1.27035
O         -1.53810       -0.23913       -1.74687
O         -1.86549        2.15376       -0.56640
O         -0.82668       -2.42062        0.06758
C         -2.64098        0.03052        0.44638
C         -2.46170       -0.82927       -0.83907
C         -2.94201        1.49512        0.08151
C         -3.78961       -0.50203        1.29846
C         -2.08515       -2.28698       -0.57293
H         -3.42377       -0.83079       -1.36558
H         -3.13698        2.05171        1.00213
H         -3.84292        1.53932       -0.54579
H         -3.95081        0.15683        2.15560
H         -4.71834       -0.56188        0.72314
H         -3.55545       -1.49524        1.68796
H         -2.87010       -2.78143        0.01317
H         -2.00403       -2.80391       -1.53210
H         -0.72542        0.38290        0.81262
H         -0.63343       -0.38012       -1.42202
H         -1.59761        1.58135       -1.30742
H         -0.81901       -1.80979        0.82290
O          1.83361       -2.79974       -0.62958
H          0.86671       -2.70171       -0.52995
H          2.12115       -2.11978       -1.25212
O          2.94371       -1.98447        1.62765
H          2.55654       -2.42176        0.82205
H          3.82223       -2.35038        1.75949
O          0.29577        3.32738        0.55223
H         -0.53571        2.93582        0.19401
H          0.24082        3.29532        1.51112
S          2.20297        0.66973       -0.29844
O          2.74019        0.50526        1.16227
H          2.85521       -0.49203        1.39270
O          2.32938        2.20385       -0.49948
H          1.53733        2.68836       -0.06554
O          3.04554       -0.02285       -1.24842
O          0.78001        0.30095       -0.31278

