37
3-SAc-338-86329-wb97xd.log	Energy: -896080.4529471
O         -1.42399       -0.47683       -1.30141
O         -1.37470        0.05514        1.69362
O         -0.70345       -2.34814        0.76970
O         -1.78147        2.04587       -0.50941
C         -2.38231       -0.91356       -0.34081
C         -2.49893        0.10939        0.82733
C         -1.99483       -2.30420        0.18956
C         -3.70919       -1.02877       -1.08769
C         -2.77827        1.53995        0.36699
H         -3.35350       -0.19980        1.44265
H         -1.98521       -3.00682       -0.64814
H         -2.75095       -2.63800        0.91451
H         -3.95302       -0.09056       -1.59180
H         -3.63351       -1.80279       -1.85556
H         -4.52914       -1.28460       -0.40978
H         -3.76366        1.59146       -0.11309
H         -2.79786        2.19096        1.24526
H         -0.51304       -0.62255       -0.98494
H         -0.64950        0.63624        1.39885
H         -0.65754       -1.60009        1.39309
H         -1.55381        1.32182       -1.12499
O          3.83561       -1.88802       -0.33995
H          4.08840       -1.90144       -1.26751
H          3.02042       -2.45121       -0.26440
O          1.65941       -3.38922       -0.13112
H          1.69953       -4.15875        0.44195
H          0.82235       -2.93183        0.09521
O          0.28641        3.77174       -0.28101
H          0.40432        4.02264        0.64042
H         -0.54379        3.24463       -0.31514
S          1.85473        0.81867        0.07228
O          3.28994        0.41129        0.48590
H          3.52987       -0.54237        0.13566
O          2.12364        2.07038       -0.82627
H          1.41518        2.78613       -0.64539
O          1.27368       -0.26025       -0.72295
O          1.09116        1.24823        1.24093

