30
7-232-74525-wb97xd.log	Energy: -456717.3267063
O         -0.01594       -1.92888       -0.02855
O          2.51470       -1.39495       -0.62556
O          0.29457        1.65849       -0.72384
O          2.94258        1.28110       -0.51637
C          0.42663       -0.59675        0.28670
C          1.95822       -0.70597        0.48455
C          0.00510        0.28860       -0.90230
C         -0.27847       -0.18553        1.56896
C          2.73057        0.60042        0.70212
H          2.10638       -1.34956        1.36084
H         -1.06907        0.13993       -1.06622
H          0.52619       -0.05375       -1.80371
H         -0.04033        0.84939        1.82564
H         -1.36260       -0.25749        1.44222
H          0.01878       -0.83620        2.39656
H          2.22287        1.23356        1.43935
H          3.72051        0.34853        1.09243
H          0.64142       -2.29627       -0.63843
H          2.86585       -0.71049       -1.21523
H         -0.49415        2.09965       -0.34723
H          2.10453        1.72665       -0.73532
O         -2.71539       -2.11597       -0.28407
H         -3.02756       -2.78107        0.33391
H         -1.73498       -2.12969       -0.23703
O         -2.10090        2.49785        0.23078
H         -2.26649        2.86806        1.10014
H         -2.72870        1.75143        0.11550
O         -3.76401        0.38442       -0.15493
H         -3.40929       -0.53165       -0.18879
H         -4.37047        0.46787       -0.89450

