27
12-0-100946-wb97xd.log	Energy: -408756.5540068
O         -2.16713       -0.70554       -0.93821
O          0.37486       -1.72671       -0.71111
O         -1.96302        1.86647       -0.09444
O          0.72358        1.89205       -0.43604
C         -1.40645       -0.51075        0.25304
C          0.09627       -0.47863       -0.10246
C         -1.93336        0.80088        0.84394
C         -1.67717       -1.63623        1.25380
C          0.54689        0.63054       -1.06532
H          0.66123       -0.36982        0.83576
H         -1.29878        1.12358        1.67398
H         -2.94474        0.62509        1.23087
H         -1.29751       -2.58360        0.86700
H         -1.18177       -1.43381        2.20999
H         -2.75272       -1.72743        1.42729
H          1.52329        0.34503       -1.46456
H         -0.14802        0.70673       -1.90934
H         -1.74276       -1.41579       -1.43567
H          1.34041       -1.84463       -0.66648
H         -2.37777        1.51295       -0.89242
H         -0.16679        2.24438       -0.26280
O          2.95195        1.17938        0.95140
H          3.67822        1.79253        0.81662
H          2.15536        1.60854        0.57301
O          3.09097       -1.37615       -0.12654
H          3.57381       -1.96746        0.45479
H          3.13165       -0.48713        0.28336

