27
1-131-82338-wb97xd.log	Energy: -408755.6793565
O         -2.05174       -0.92428       -0.94195
O          0.57472       -1.65291       -0.65077
O         -2.20939        1.70297       -0.20952
O          0.47743        1.98644       -0.40839
C         -1.37919       -0.55692        0.26090
C          0.12633       -0.42672       -0.07097
C         -2.00115        0.74237        0.80304
C         -1.59169       -1.67472        1.27693
C          0.51925        0.71279       -1.02192
H          0.68904       -0.30643        0.86185
H         -1.38050        1.13988        1.61633
H         -2.98726        0.49980        1.21093
H         -1.13718       -2.60624        0.93443
H         -1.14126       -1.40765        2.23896
H         -2.66198       -1.84072        1.42255
H          1.52729        0.50096       -1.39579
H         -0.15374        0.73895       -1.88511
H         -2.35833       -0.09801       -1.34377
H         -0.08386       -1.90928       -1.31106
H         -1.36701        2.17326       -0.32570
H          1.26108        2.04257        0.16645
O          2.86584        1.33686        0.86792
H          3.27589        1.47881        1.72307
H          3.09472        0.42822        0.58641
O          3.23069       -1.26291       -0.02653
H          3.90043       -1.49560       -0.67331
H          2.38098       -1.60859       -0.36016

