27
1-332-83421-wb97xd.log	Energy: -408754.4349261
O          1.64967       -1.04077       -0.97763
O         -0.32058        0.92000        1.39327
O         -0.75863       -2.06437       -0.58433
O          1.88021        1.66730       -1.44720
C          1.06494       -0.70107        0.28200
C          0.30061        0.63971        0.16010
C          0.07455       -1.84002        0.54894
C          2.12281       -0.66336        1.38086
C          1.18303        1.83881       -0.20965
H         -0.45188        0.50855       -0.63306
H         -0.57074       -1.59143        1.39289
H          0.63334       -2.75686        0.77333
H          2.91035        0.05530        1.13763
H          1.67376       -0.37714        2.33597
H          2.59213       -1.64595        1.47927
H          0.55323        2.73489       -0.23772
H          1.94515        1.99402        0.55711
H          2.03421       -0.23500       -1.35683
H         -1.19357        1.31059        1.19910
H         -0.16939       -1.99232       -1.34975
H          1.28527        1.87676       -2.17265
O         -3.13905       -0.74892       -0.61271
H         -2.30128       -1.26170       -0.62112
H         -3.66412       -1.05496       -1.35464
O         -2.72509        1.74989        0.35380
H         -3.45128        2.03500        0.91271
H         -2.99288        0.89067       -0.03738

