27
12-248-94454-wb97xd.log	Energy: -408755.2987870
O          0.56237        1.31325       -0.74972
O         -1.44682        0.06259       -1.73529
O          0.35380       -1.43099        0.32117
O         -2.31743       -1.76157        0.04492
C         -0.34508        0.91342        0.27938
C         -1.69499        0.56085       -0.43311
C          0.27214       -0.24161        1.07762
C         -0.54564        2.10334        1.21189
C         -2.61834       -0.41119        0.32260
H         -2.22781        1.50946       -0.56778
H         -0.32978       -0.42694        1.97837
H          1.26870        0.06976        1.41225
H         -0.84816        2.98081        0.63516
H         -1.31704        1.89167        1.95974
H          0.38213        2.34383        1.74034
H         -2.59559       -0.19722        1.40076
H         -3.64318       -0.25992       -0.02428
H          0.25605        0.85328       -1.55119
H         -1.49121       -0.90338       -1.67421
H          1.29212       -1.70155        0.24608
H         -1.39412       -1.94935        0.29075
O          3.04313       -1.71879        0.23059
H          3.49539       -2.32180       -0.36337
H          3.28505       -0.80904       -0.04630
O          3.23646        0.86535       -0.53871
H          2.29210        1.12612       -0.60824
H          3.71460        1.60668       -0.16210

