27
159-128-80755-wb97xd.log	Energy: -408756.1262430
O         -2.15970       -0.74263       -0.91439
O          0.39085       -1.73286       -0.71079
O         -1.97501        1.84514       -0.12377
O          0.70394        1.89650       -0.49776
C         -1.38600       -0.51795        0.26348
C          0.11183       -0.47910       -0.11213
C         -1.91831        0.79944        0.83606
C         -1.63214       -1.62660        1.28887
C          0.54304        0.61812       -1.09729
H          0.68618       -0.35616        0.81786
H         -1.27415        1.14590        1.64896
H         -2.92148        0.62098        1.24251
H         -1.24404       -2.57654        0.91704
H         -1.12892       -1.39952        2.23525
H         -2.70465       -1.72760        1.47543
H          1.52314        0.33598       -1.48902
H         -0.15531        0.66589       -1.94079
H         -1.73755       -1.46229       -1.40000
H          1.35132       -1.86748       -0.63459
H         -2.39437        1.46874       -0.90883
H         -0.19143        2.23628       -0.32370
O          3.08167       -1.37886       -0.03311
H          3.12984       -0.48526        0.36235
H          3.90355       -1.52011       -0.50661
O          2.85894        1.19511        0.99697
H          3.53711        1.85860        1.13790
H          2.10466        1.63993        0.55523

