27
13-268-5126-wb97xd.log	Energy: -408756.2380633
O          0.70966        0.91957       -0.98535
O         -1.23405       -0.88831       -1.30951
O          0.49727       -1.49241        0.69916
O         -3.76891       -0.54710       -0.11880
C         -0.20045        0.78772        0.11822
C         -1.51529        0.23386       -0.47440
C          0.40518       -0.15975        1.16665
C         -0.37496        2.17875        0.71112
C         -2.58887       -0.14599        0.54159
H         -1.93227        0.99403       -1.14480
H         -0.22329       -0.15409        2.06538
H          1.39397        0.22224        1.45062
H         -0.80978        2.85456       -0.02966
H         -1.02156        2.15974        1.59261
H          0.59792        2.57944        1.01141
H         -2.21730       -0.94958        1.19487
H         -2.85354        0.71161        1.16651
H          0.49482        0.20523       -1.60443
H         -0.73534       -1.51494       -0.75325
H          1.42871       -1.67476        0.45642
H         -3.50630       -1.17419       -0.80319
O          3.14007       -1.67092        0.07238
H          3.75627       -2.03574        0.71130
H          3.40917       -0.74287       -0.09329
O          3.34999        1.00254       -0.35333
H          2.41734        1.09673       -0.64471
H          3.89536        1.46809       -0.99124

