27
142-321-87474-wb97xd.log	Energy: -408754.5373005
O          1.63399       -1.02918       -0.99591
O         -0.29955        0.90939        1.42338
O         -0.75945       -2.07191       -0.55342
O          1.81936        1.68230       -1.47229
C          1.07314       -0.69599        0.27557
C          0.29512        0.63845        0.17467
C          0.09638       -1.84201        0.56121
C          2.15364       -0.65260        1.35216
C          1.15731        1.84565       -0.21484
H         -0.47355        0.50394       -0.60173
H         -0.53262       -1.59704        1.41845
H          0.66567       -2.75528        0.77379
H          2.63346       -1.63141        1.43709
H          2.92953        0.07353        1.09418
H          1.72304       -0.37306        2.31769
H          0.51958        2.73652       -0.22242
H          1.94026        2.00496        0.52981
H          1.99770       -0.21873       -1.38559
H         -1.18055        1.29106        1.25123
H         -0.18722       -2.01004       -1.33267
H          1.19829        1.87813       -2.17965
O         -3.10066       -0.71513       -0.74869
H         -3.82248       -1.33652       -0.63396
H         -2.26883       -1.23332       -0.67521
O         -2.71068        1.71939        0.40262
H         -3.46432        2.07191        0.87977
H         -2.99564        0.87555       -0.00886

