27
159-391-95354-wb97xd.log	Energy: -408755.3954473
O          0.61790        1.58112        0.24173
O          0.11926       -1.22933        0.75516
O         -1.08548        0.80164        2.13939
O         -2.31615       -1.75170       -0.40493
C         -0.55334        0.89552       -0.23586
C         -0.16354       -0.58303       -0.48429
C         -1.62822        1.05944        0.85373
C         -0.98213        1.58333       -1.52410
C         -1.19403       -1.45181       -1.20981
H          0.74120       -0.56200       -1.10727
H         -2.48104        0.40947        0.63334
H         -1.96419        2.10056        0.86827
H         -0.27670        1.37748       -2.33575
H         -1.97662        1.25101       -1.83513
H         -1.01288        2.66338       -1.36189
H         -1.56957       -0.96112       -2.11063
H         -0.68615       -2.37588       -1.51862
H          0.58305        1.51189        1.20926
H          1.07613       -1.43476        0.79369
H         -0.75158       -0.10837        2.11227
H         -1.97524       -2.16732        0.39566
O          2.80588       -1.57104        0.52996
H          3.08710       -0.75277        0.07042
H          3.40307       -1.70181        1.26933
O          2.99835        0.79720       -0.77462
H          3.63809        1.49289       -0.93663
H          2.17479        1.21349       -0.43785

