30
1-903-71355-wb97xd.log	Energy: -456716.8584914
O          0.68465        0.06908       -1.14849
O         -0.33437        0.24324        1.50823
O          2.26286        0.80779        1.21103
O         -1.72173       -1.05449       -0.86335
C          1.07345       -0.88845       -0.16024
C         -0.03842       -1.01387        0.91510
C          2.38701       -0.39254        0.46540
C          1.33909       -2.24032       -0.82872
C         -1.33702       -1.61540        0.38376
H          0.33521       -1.69612        1.69532
H          3.12616       -0.26736       -0.33546
H          2.75617       -1.15997        1.15348
H          2.20556       -2.16157       -1.49156
H          1.53827       -3.02188       -0.08768
H          0.48110       -2.54319       -1.43348
H         -1.20364       -2.69545        0.25240
H         -2.11782       -1.45809        1.13552
H         -0.24574       -0.13596       -1.36429
H          0.52530        0.67653        1.67636
H          2.34535        1.55150        0.58635
H         -2.57060       -0.57820       -0.75756
O          2.26794        2.27699       -1.10898
H          1.60502        1.61104       -1.37617
H          1.99208        3.13233       -1.44273
O         -1.87549        2.16620        0.34317
H         -1.35875        2.48330       -0.40126
H         -1.32077        1.47136        0.76424
O         -3.86956        0.45495       -0.24544
H         -3.32344        1.24441       -0.03749
H         -4.62840        0.74085       -0.75712

