30
1-446-87324-wb97xd.log	Energy: -456715.7526126
O         -0.29400        0.75232        0.57287
O         -1.87135       -1.70323        0.25804
O          0.60329       -1.69862       -0.72368
O         -2.59347        0.28178        1.92746
C         -0.83966        0.33385       -0.66949
C         -2.14148       -0.43600       -0.34107
C          0.15776       -0.55874       -1.43601
C         -1.14265        1.54665       -1.55890
C         -3.08300        0.32634        0.60041
H         -2.65738       -0.64062       -1.28629
H          1.04556        0.03721       -1.67061
H         -0.30536       -0.86805       -2.38471
H         -0.20827        2.05508       -1.81450
H         -1.63964        1.25181       -2.48903
H         -1.78010        2.26295       -1.03555
H         -3.23245        1.35709        0.25832
H         -4.05559       -0.17241        0.61383
H          0.52438        1.26678        0.41169
H         -1.90416       -1.55119        1.21545
H         -0.17149       -2.04917       -0.24924
H         -1.71241        0.68860        1.89990
O          3.09117       -1.81622        0.29557
H          3.55189       -2.41156       -0.29982
H          2.16154       -1.77192       -0.02514
O          4.04725        0.63299        0.84595
H          3.76572       -0.28868        0.63822
H          4.22411        0.64854        1.78947
O          1.98774        2.08351       -0.10050
H          2.78804        1.62661        0.25118
H          2.13464        3.02603        0.00144

