30
187-514-91740-wb97xd.log	Energy: -456717.9463117
O         -0.33029       -0.22217        0.92212
O          1.21354        0.83385       -1.24441
O         -1.35194        0.42463       -1.73425
O          2.35352       -0.17784        1.30866
C         -0.03727       -1.02437       -0.22096
C          1.28109       -0.53659       -0.87886
C         -1.22095       -0.87265       -1.18934
C          0.06546       -2.49617        0.19032
C          2.51181       -0.72525        0.00776
H          1.43704       -1.14758       -1.78325
H         -2.13710       -1.15991       -0.65677
H         -1.07940       -1.57440       -2.01991
H         -0.91383       -2.85631        0.51960
H          0.40450       -3.12552       -0.63941
H          0.76045       -2.61452        1.02517
H          2.72059       -1.79182        0.12742
H          3.37152       -0.27145       -0.50056
H          0.51040       -0.09948        1.40153
H          0.29572        1.00296       -1.54091
H         -2.03403        0.91404       -1.22541
H          2.56801        0.77467        1.26121
O         -3.34050        1.50642       -0.24415
H         -3.29126        1.03647        0.61628
H         -4.23365        1.39166       -0.57609
O         -2.82814       -0.01973        1.93554
H         -1.88522       -0.14867        1.69206
H         -2.84029        0.31139        2.83645
O          2.48157        2.43559        0.55795
H          3.19074        2.96935        0.19384
H          1.97282        2.07323       -0.19640

