33
1-143-77575-wb97xd.log	Energy: -504679.8797933
O          0.17582       -0.34634        1.15350
O          0.76968        0.20441       -1.64873
O         -0.90643       -1.79307       -1.11829
O          2.12979        1.53131        0.76347
C          1.00173       -1.19577        0.36304
C          1.70953       -0.37618       -0.75164
C          0.09189       -2.27546       -0.23908
C          2.03204       -1.89109        1.26030
C          2.69090        0.67212       -0.21904
H          2.29268       -1.08305       -1.35611
H         -0.42017       -2.78829        0.58140
H          0.72579       -3.00909       -0.75806
H          1.52248       -2.56666        1.95274
H          2.75325       -2.47109        0.67476
H          2.57946       -1.15751        1.85758
H          3.54344        0.17436        0.25018
H          3.06950        1.25004       -1.07153
H          0.72011        0.41915        1.40486
H          0.46087        1.06796       -1.31123
H         -0.53907       -1.01022       -1.56946
H          1.57018        2.19176        0.31635
O          0.19672        2.78186       -0.75674
H         -0.70321        2.87352       -0.33394
H          0.24375        3.43359       -1.46026
O         -2.51669        0.41298        1.15897
H         -3.06698       -0.24531        0.69448
H         -1.61880        0.03454        1.16496
O         -3.49852       -1.72440       -0.29416
H         -2.60937       -1.83371       -0.69069
H         -4.13251       -1.75416       -1.01346
O         -2.19311        2.86928        0.30851
H         -2.40612        1.94046        0.60453
H         -2.39991        3.44377        1.04922

