33
1-643-100556-wb97xd.log	Energy: -504679.5457392
O          0.90012       -0.15353        1.21481
O         -0.11014        0.14381       -1.46613
O          1.63792       -1.86692       -1.07632
O         -0.36615        2.12303        0.84256
C          1.74207        0.30094        0.15043
C          0.88830        1.00181       -0.94079
C          2.47073       -0.93115       -0.40900
C          2.79184        1.26304        0.71414
C          0.20806        2.27795       -0.44321
H          1.57515        1.29549       -1.75142
H          3.00507       -1.41556        0.41880
H          3.21217       -0.59788       -1.14138
H          3.46377        0.72602        1.38990
H          3.38976        1.71626       -0.08355
H          2.30947        2.05911        1.28572
H          0.94966        3.08418       -0.39692
H         -0.55243        2.56066       -1.18031
H          0.26804        0.57981        1.38009
H          0.30349       -0.72631       -1.60540
H          1.18023       -2.40908       -0.41167
H         -1.34856        2.18597        0.79018
O          0.04947       -2.64699        1.09770
H          0.26376       -3.12821        1.90097
H          0.27558       -1.69481        1.25889
O         -2.84626       -0.09816       -0.89324
H         -1.91381        0.00175       -1.15652
H         -2.89404       -0.97176       -0.46180
O         -2.61723       -2.63434        0.26182
H         -2.77327       -3.37324       -0.33069
H         -1.69543       -2.71380        0.57149
O         -3.01236        2.05691        0.61587
H         -3.59826        2.72096        0.24786
H         -3.10932        1.23439        0.06982

