33
1-406-96475-wb97xd.log	Energy: -504678.2181984
O         -0.48321        0.48484        1.08259
O         -0.76730       -0.57630       -1.62623
O         -0.57119        2.08967       -1.33292
O         -0.94026       -2.21286        0.96552
C         -1.68927        0.60067        0.33127
C         -1.81921       -0.58072       -0.66885
C         -1.63587        1.94498       -0.41329
C         -2.88847        0.63479        1.28580
C         -1.95256       -1.95012        0.00401
H         -2.73770       -0.41775       -1.24740
H         -1.52321        2.74181        0.32900
H         -2.60062        2.09084       -0.92166
H         -2.84908        1.54192        1.89510
H         -3.83951        0.62143        0.74273
H         -2.86447       -0.22076        1.96554
H         -2.90854       -2.01202        0.53062
H         -1.95335       -2.71727       -0.78062
H         -0.44001       -0.42867        1.41179
H          0.03112       -0.99506       -1.25321
H         -0.46664        1.22997       -1.77661
H         -0.12163       -2.45480        0.49607
O          1.27546       -2.24041       -0.68548
H          2.13636       -1.93928       -0.29292
H          1.49118       -2.85866       -1.38771
O          3.96713        1.20076        0.14217
H          3.08429        1.64932        0.20578
H          4.54570        1.66796        0.74910
O          3.55487       -1.42189        0.39130
H          3.74418       -0.45240        0.31720
H          4.38179       -1.87892        0.22478
O          1.56153        2.28143        0.44027
H          1.03283        2.45374       -0.35868
H          0.99327        1.63914        0.89967

