33
3-850-96188-wb97xd.log	Energy: -504675.5299033
O          0.07714       -0.52326       -0.62086
O         -1.77034        1.29915        0.60555
O          0.73123        1.49257        1.40398
O         -2.55142       -0.96147       -1.14129
C         -0.28884       -0.66401        0.75329
C         -1.70179       -0.06622        0.98742
C          0.77133        0.09080        1.57048
C         -0.24792       -2.14245        1.15447
C         -2.81085       -0.81359        0.24729
H         -1.91436       -0.15514        2.06568
H          1.75796       -0.30263        1.29132
H          0.60938       -0.12728        2.63312
H         -0.83076       -2.74634        0.45461
H          0.78311       -2.50759        1.12575
H         -0.64292       -2.29747        2.16409
H         -2.92515       -1.81692        0.66633
H         -3.75244       -0.27448        0.40887
H         -0.72522       -0.71761       -1.14177
H         -0.90442        1.69752        0.83280
H          1.42231        1.76401        0.75989
H         -2.84980       -0.14587       -1.58990
O          4.28542       -0.04676       -0.71387
H          3.64164       -0.74581       -0.96891
H          4.84476       -0.42544       -0.03227
O         -2.99396        1.64191       -1.80390
H         -2.52764        1.76320       -0.95135
H         -3.78279        2.18724       -1.77757
O          2.75108        2.14607       -0.25293
H          3.28804        2.91825       -0.06459
H          3.36755        1.40305       -0.43314
O          2.34872       -1.83938       -1.28230
H          1.49918       -1.37364       -1.10378
H          2.28707       -2.19495       -2.17198

