33
1-230-100637-wb97xd.log	Energy: -504679.1883199
O         -0.48532       -0.24674       -1.26047
O         -0.80033        0.24578        1.64487
O          1.04052       -1.47660        0.82583
O         -2.53224        1.44947       -0.63345
C         -1.11217       -1.15576       -0.36237
C         -1.77034       -0.40224        0.82871
C         -0.01600       -2.10995        0.12983
C         -2.16133       -1.98202       -1.11558
C         -2.88922        0.55939        0.41314
H         -2.23061       -1.16206        1.47410
H          0.42522       -2.60534       -0.74015
H         -0.48092       -2.87791        0.76518
H         -1.67089       -2.59352       -1.87780
H         -2.71762       -2.64271       -0.44232
H         -2.87375       -1.32838       -1.62560
H         -3.74758       -0.01349        0.05247
H         -3.20978        1.11312        1.30486
H         -1.14830        0.43226       -1.47350
H         -0.63234        1.15624        1.33013
H          0.64324       -0.75914        1.35523
H         -1.94088        2.13692       -0.27658
O         -0.40230        2.74962        0.55334
H         -0.21231        3.57014        1.01249
H          0.39680        2.50056       -0.00007
O          3.68559       -1.46337        0.27040
H          4.11571       -1.88270        1.01906
H          2.72058       -1.51188        0.44660
O          4.06227        1.15775       -0.32126
H          4.65607        1.24070       -1.07106
H          4.04102        0.20356       -0.08855
O          1.44862        1.72591       -0.92710
H          2.38975        1.57998       -0.69514
H          1.03651        0.85263       -1.04902

