33
1-408-100953-wb97xd.log	Energy: -504678.8707605
O          0.49494       -0.50159        1.08676
O          0.75569        0.60769       -1.61838
O          0.48600       -2.05104       -1.35530
O          0.96992        2.19245        0.99894
C          1.68128       -0.62325        0.30609
C          1.81588        0.57768       -0.67041
C          1.58311       -1.94818       -0.46817
C          2.90075       -0.70391        1.23192
C          1.97493        1.93101        0.02885
H          2.72724        0.41441       -1.26013
H          1.48040       -2.76172        0.25720
H          2.52784       -2.09734       -1.01167
H          2.85329       -1.62156        1.82462
H          3.83968       -0.70207        0.66802
H          2.91234        0.13814        1.92867
H          2.93342        1.96644        0.55312
H          1.98597        2.71373       -0.74017
H          0.47107        0.40881        1.42597
H         -0.02504        1.05776       -1.24351
H          0.38994       -1.17978       -1.77853
H          0.15264        2.45037        0.53493
O         -3.95262       -1.16996        0.27408
H         -3.09237       -1.65867        0.33734
H         -4.52269       -1.66548       -0.31685
O         -3.58363        1.45776        0.23826
H         -3.75279        0.48315        0.19638
H         -3.89569        1.74647        1.09895
O         -1.24591        2.29684       -0.64000
H         -2.11255        1.96378       -0.28323
H         -1.46340        2.95644       -1.30343
O         -1.56184       -2.31903        0.50047
H         -0.99634       -1.69487        0.98553
H         -1.04895       -2.42297       -0.32157

