33
1-446-96459-wb97xd.log	Energy: -504678.0787978
O          0.44481       -0.26461        1.22640
O          0.80242        0.28492       -1.64833
O         -0.98839       -1.53452       -0.91973
O          2.48895        1.47086        0.67804
C          1.11902       -1.14599        0.33542
C          1.77683       -0.35980       -0.83408
C          0.06641       -2.13132       -0.18801
C          2.17773       -1.94568        1.10389
C          2.87209        0.61457       -0.38692
H          2.25814       -1.09807       -1.48902
H         -0.38518       -2.63815        0.67023
H          0.57298       -2.88568       -0.80740
H          1.69078       -2.58528        1.84502
H          2.77361       -2.57634        0.43569
H          2.85356       -1.27454        1.64023
H          3.73933        0.05054       -0.03357
H          3.18779        1.19612       -1.26260
H          1.08933        0.41887        1.47680
H          0.60659        1.18086       -1.31068
H         -0.60461       -0.78768       -1.41751
H          1.88518        2.15346        0.33281
O         -3.55629       -1.50878       -0.08822
H         -2.62247       -1.54029       -0.39130
H         -4.02958       -2.19129       -0.56781
O         -4.11480        1.11758        0.30330
H         -4.05843        0.14962        0.15370
H         -4.51678        1.49292       -0.48287
O         -1.50821        1.70522        0.95544
H         -1.10389        0.82666        1.05949
H         -2.45412        1.57306        0.73891
O          0.34728        2.75951       -0.49606
H          0.17110        3.60677       -0.90963
H         -0.45171        2.49634        0.05095

