33
3-250-89836-wb97xd.log	Energy: -504678.8336126
O         -0.48446       -0.45637       -1.10098
O         -0.72767        0.53151        1.64011
O         -0.51950       -2.12551        1.27055
O         -0.95386        2.23604       -0.90086
C         -1.67670       -0.59993       -0.33145
C         -1.79582        0.55422        0.70161
C         -1.60347       -1.96228        0.37709
C         -2.89235       -0.61673       -1.26549
C         -1.95133        1.93928        0.06707
H         -2.70328        0.36953        1.29105
H         -1.50353       -2.74009       -0.38697
H         -2.55686       -2.12481        0.90141
H         -2.88558        0.25636       -1.92298
H         -2.85861       -1.50749       -1.89882
H         -3.83372       -0.62342       -0.70573
H         -2.91520        2.00646       -0.44410
H         -1.94688        2.68592        0.87111
H         -0.45370        0.46819       -1.39916
H          0.05819        0.97945        1.27424
H         -0.40621       -1.27615        1.73211
H         -0.13247        2.47238       -0.43195
O          1.57184       -2.28779       -0.54163
H          1.03798       -2.46691        0.25372
H          1.01048       -1.63278       -0.99017
O          3.90055       -1.13843        0.00841
H          4.62941       -1.69966       -0.26222
H          3.05950       -1.62703       -0.18484
O          1.28512        2.24328        0.69312
H          1.54682        2.86755        1.37445
H          2.12379        1.93506        0.25722
O          3.53376        1.45436       -0.43900
H          3.74707        0.50109       -0.28126
H          3.65467        1.61224       -1.37794

