31
12-254-91211-wb97xd.log	Energy: -800157.1755040
O          0.75341       -0.20205       -1.48146
O          2.30067       -0.60782        1.75979
O          0.07738       -2.12034        0.89160
O          1.95351        2.10704       -0.70622
C          1.64651       -0.80659       -0.53100
C          1.71480        0.13529        0.69082
C          1.06081       -2.17049       -0.13617
C          2.99826       -1.03857       -1.20230
C          2.49027        1.42649        0.41380
H          0.67924        0.39754        0.94131
H          1.87200       -2.83114        0.18294
H          0.57798       -2.60847       -1.01301
H          3.34690       -0.12977       -1.69873
H          3.74392       -1.34751       -0.46394
H          2.90703       -1.82064       -1.96189
H          2.45678        2.06619        1.30649
H          3.53947        1.20011        0.20248
H          1.07010        0.71698       -1.59296
H          2.39395       -0.03701        2.52874
H          0.51852       -1.82516        1.69998
H          1.18413        2.62975       -0.39481
O         -0.25126        3.15327        0.45474
H         -0.77332        3.93148        0.24790
H         -0.87460        2.41273        0.57590
O         -2.45262       -1.50251        0.54058
S         -2.50143       -0.03023       -0.02138
O         -3.87845        0.33069       -0.18969
O         -1.62192        0.79352        0.81399
O         -1.84773       -0.14998       -1.45001
H         -1.50470       -1.77092        0.70638
H         -0.84235       -0.19195       -1.40217

