31
159-135-76454-wb97xd.log	Energy: -800153.4985997
O         -3.54853       -1.22975        1.03470
O         -1.84319        0.89644        1.68719
O         -0.65258       -1.02296       -1.21366
O         -0.83081        1.60467       -1.12704
C         -2.81258       -0.57991        0.00337
C         -2.58895        0.88196        0.48272
C         -1.52914       -1.41638       -0.15163
C         -3.66805       -0.63780       -1.25398
C         -2.09216        1.90470       -0.53618
H         -3.59010        1.22810        0.76986
H         -1.83221       -2.44511       -0.35449
H         -0.98144       -1.40777        0.79983
H         -4.55807       -0.01156       -1.14196
H         -3.10932       -0.31161       -2.13528
H         -3.99559       -1.66749       -1.41743
H         -2.80350        1.97419       -1.36250
H         -2.04732        2.88093       -0.04199
H         -3.15425       -0.96492        1.87629
H         -0.90263        0.74532        1.51220
H         -0.72046       -0.04459       -1.34275
H         -0.12172        1.74992       -0.48277
O          5.20815       -0.12669       -0.65278
H          5.52016       -0.86733       -1.17990
H          5.09912       -0.44935        0.25293
O          1.64676       -1.34040       -0.25866
S          2.12652       -0.02664        0.42873
O          0.97115        0.74371        0.87710
O          3.16642       -0.37993        1.37018
O          2.74601        0.82927       -0.74883
H          0.72237       -1.22594       -0.72829
H          3.68891        0.53325       -0.89480

