31
250-SAc-485-82450-wb97xd.log	Energy: -800151.9649791
O         -2.07550        0.75439       -1.40327
O         -0.96683       -1.46763       -0.73304
O         -2.83851        1.98445        0.76419
O         -0.58902        0.63422        1.44196
C         -2.86561       -0.07610       -0.56697
C         -1.93499       -1.06263        0.21278
C         -3.64847        0.89778        0.32970
C         -3.84466       -0.89253       -1.41369
C         -1.32615       -0.57570        1.52758
H         -2.55443       -1.92929        0.49618
H         -4.03380        0.39969        1.22326
H         -4.50535        1.28710       -0.23350
H         -4.37906       -0.23193       -2.10130
H         -3.30231       -1.63978       -1.99886
H         -4.57536       -1.41061       -0.78153
H         -2.12075       -0.46402        2.27532
H         -0.63291       -1.33661        1.89627
H         -1.29758        0.22582       -1.64268
H         -0.10655       -1.63680       -0.31699
H         -2.49083        2.37326       -0.05110
H         -1.23019        1.34767        1.25507
O          4.45887        1.39030       -1.51279
H          4.60423        2.31583       -1.29916
H          4.87114        0.86958       -0.80801
S          2.44532       -0.43908        0.30152
O          2.15783        0.11453       -1.15509
H          2.91969        0.69654       -1.42891
O          1.95154        0.70837        1.24816
H          0.93694        0.70729        1.31762
O          1.58759       -1.60065        0.45953
O          3.87543       -0.55466        0.49503

