31
12-430-72345-wb97xd.log	Energy: -800152.8799256
O         -3.80689       -0.27163        0.13942
O         -1.66455       -1.82706        1.04597
O         -2.63685        1.53014       -1.53835
O         -0.51968       -0.05035       -1.92436
C         -2.58978        0.30714        0.60644
C         -1.40762       -0.63964        0.30830
C         -2.48811        1.64719       -0.12896
C         -2.66236        0.58763        2.10888
C         -1.20567       -1.03852       -1.15979
H         -0.49527       -0.15271        0.67169
H         -1.51001        2.10189        0.04954
H         -3.25985        2.31917        0.26448
H         -2.74526       -0.34735        2.66562
H         -1.75977        1.10550        2.45067
H         -3.53318        1.21088        2.32855
H         -0.57477       -1.92837       -1.18293
H         -2.16391       -1.28169       -1.63017
H         -3.85914       -1.17048        0.48509
H         -0.83438       -2.30866        1.13134
H         -3.44171        1.01812       -1.69059
H         -1.13246        0.70169       -2.04016
O          4.11482        2.04608        0.83245
H          4.59387        1.25743        0.53657
H          4.28611        2.73439        0.18413
O          1.87183        0.61769        0.92173
S          2.34910       -0.56380       -0.03516
O          3.79298       -0.66455        0.02748
O          1.51232       -1.69724        0.29359
O          2.00719       -0.02478       -1.46961
H          2.59028        1.30735        0.94967
H          1.00564        0.00440       -1.64676

