31
12-435-61942-wb97xd.log	Energy: -800152.7093120
O          3.80320        0.11784        0.35807
O          1.59844        0.80369        1.94350
O          2.71663       -0.29227       -2.11064
O          0.57549        1.19928       -1.53101
C          2.58523       -0.62403        0.33265
C          1.39269        0.31073        0.62657
C          2.53361       -1.24174       -1.06839
C          2.61922       -1.75910        1.35817
C          1.22814        1.51910       -0.30525
H          0.48054       -0.29603        0.58323
H          1.56188       -1.71347       -1.23722
H          3.30984       -2.01301       -1.13681
H          2.66811       -1.35409        2.37042
H          1.71702       -2.37571        1.28384
H          3.49491       -2.39008        1.18467
H          0.58692        2.24582        0.19587
H          2.19603        1.99035       -0.50417
H          3.82446        0.62420        1.17860
H          0.75730        1.14824        2.26385
H          3.51460        0.20716       -1.89433
H          1.20071        0.66865       -2.06155
O         -4.17079       -2.13834       -0.46802
H         -4.64483       -2.79443        0.04963
H         -4.62373       -1.29162       -0.33628
O         -1.89019       -1.02478        0.33030
S         -2.34368        0.49985        0.22711
O         -3.79002        0.55998        0.29890
O         -1.52623        1.21756        1.18214
O         -1.95564        0.89933       -1.23682
H         -2.63511       -1.60197        0.00594
H         -0.95013        0.98014       -1.37343

