31
274-SAc-611-70108-wb97xd.log	Energy: -800152.2034892
O         -0.92033        0.63979       -1.33533
O         -2.11723       -1.56522       -0.54466
O         -0.57668       -0.39739        1.37363
O         -4.83883       -1.56023        0.12416
C         -1.89368        0.84437       -0.32239
C         -2.86177       -0.33941       -0.54158
C         -1.26157        0.82118        1.07708
C         -2.59509        2.18743       -0.52731
C         -3.95885       -0.52332        0.49485
H         -3.33231       -0.20884       -1.52511
H         -2.03558        0.99026        1.83472
H         -0.52700        1.62793        1.15849
H         -3.06610        2.21154       -1.51314
H         -3.35907        2.37767        0.23286
H         -1.86062        2.99695       -0.48474
H         -3.51281       -0.72620        1.48022
H         -4.56090        0.38508        0.57211
H         -0.07550        1.05384       -1.09646
H         -1.46531       -1.47821       -1.25412
H         -0.99785       -1.11411        0.86236
H         -4.30560       -2.34358       -0.05036
O          4.81750       -1.75580       -0.56307
H          5.12013       -0.95220       -0.11544
H          4.99359       -2.49103        0.03010
S          2.51305        0.46224        0.11767
O          2.42546       -0.68583       -0.97138
H          3.24706       -1.24793       -0.90517
O          1.96978       -0.21624        1.42289
H          0.95637       -0.32235        1.39219
O          3.90262        0.78544        0.36292
O          1.58752        1.49347       -0.31732

