31
7-SAc-553-84496-wb97xd.log	Energy: -800152.9860876
O         -0.82550       -1.37717        0.81361
O         -1.36472        0.26444       -1.47657
O         -2.98786       -1.82576       -0.63319
O         -3.46600        1.86593       -0.77011
C         -1.80425       -0.31548        0.85969
C         -1.35934        0.77380       -0.14593
C         -3.14483       -0.97310        0.48974
C         -1.82821        0.21379        2.28554
C         -2.19757        2.05346       -0.17722
H         -0.33984        1.06919        0.13634
H         -3.90033       -0.20161        0.31369
H         -3.46758       -1.61468        1.31472
H         -2.68961        0.86830        2.44466
H         -1.89881       -0.62467        2.98223
H         -0.91814        0.77739        2.51520
H         -2.37177        2.43668        0.83074
H         -1.62315        2.80925       -0.72874
H         -1.14701       -2.00709        0.14499
H         -0.47654       -0.06560       -1.68710
H         -2.70237       -1.26516       -1.36982
H         -3.31401        1.56629       -1.67332
O          4.55774        1.42013        0.91479
H          4.77622        1.35238        1.84813
H          4.87237        0.60860        0.49053
S          2.24049       -0.44183       -0.47447
O          1.72161       -1.16275        0.81736
H          0.70365       -1.21245        0.82998
O          2.13827        1.09999       -0.10612
H          2.97529        1.37244        0.36527
O          3.63504       -0.79535       -0.62942
O          1.30131       -0.65380       -1.55996

