31
109-420-57571-wb97xd.log	Energy: -800152.3611698
O         -1.19132        0.27250       -1.04445
O         -3.67646       -0.17641       -1.53646
O         -0.61359       -0.58694        1.52831
O         -2.16762       -2.23273        0.11304
C         -2.03828        0.76085       -0.01363
C         -3.34314       -0.07227       -0.16468
C         -1.37514        0.60410        1.36936
C         -2.34706        2.24467       -0.23071
C         -3.31986       -1.46703        0.45927
H         -4.15475        0.47757        0.33067
H         -2.14342        0.66005        2.15228
H         -0.68009        1.43441        1.52343
H         -2.93481        2.37967       -1.14175
H         -2.91595        2.65299        0.61178
H         -1.41553        2.81065       -0.32440
H         -3.31704       -1.40631        1.55194
H         -4.22978       -1.99092        0.14721
H         -0.33351        0.72853       -1.01102
H         -2.85839       -0.04212       -2.03524
H         -1.00386       -1.31371        0.98998
H         -2.01455       -2.14833       -0.83564
O          4.86587       -1.41926       -0.68689
H          5.47705       -1.49809       -1.42403
H          5.06552       -0.58415       -0.23851
O          2.32586       -0.69495       -0.97317
S          2.31385        0.49588        0.07401
O          3.66792        0.97522        0.26263
O          1.27931        1.40989       -0.38516
O          1.87171       -0.17239        1.41221
H          3.22171       -1.13254       -0.95098
H          0.86340       -0.38323        1.43191

