31
109-SAc-366-92611-wb97xd.log	Energy: -800157.1007300
O          1.91651        0.46740       -1.19154
O          0.29023        0.72858        1.30058
O          3.38940       -1.73058       -0.74870
O          0.15838       -1.53074       -0.55353
C          2.44444        0.37572        0.13802
C          1.37217       -0.18673        1.10828
C          3.65011       -0.57796        0.01467
C          2.95896        1.73297        0.62059
C          0.81001       -1.55028        0.71334
H          1.85548       -0.31033        2.08635
H          3.95791       -0.91906        1.00791
H          4.48348       -0.00897       -0.41871
H          2.15624        2.46209        0.75087
H          3.46912        1.62584        1.58302
H          3.66881        2.13443       -0.10726
H          1.61110       -2.29417        0.70239
H          0.05670       -1.84992        1.44795
H          1.36084        1.26219       -1.28151
H          0.29902        1.45178        0.64767
H          3.16195       -1.44661       -1.64042
H          0.67395       -0.95808       -1.14675
O         -0.04771        2.39169       -0.87201
H         -0.18410        3.33273       -1.00548
H         -0.91035        1.94038       -1.01043
S         -2.88123       -0.08721       -0.07299
O         -2.41884       -1.53408       -0.47598
H         -1.41761       -1.55653       -0.59211
O         -2.28124        0.11627        1.37744
H         -1.29916        0.30522        1.35691
O         -2.23015        0.86525       -0.97744
O         -4.30881       -0.09102        0.04345

