31
250-SAc-444-89872-wb97xd.log	Energy: -800152.9565758
O         -0.51467       -0.30165       -1.04448
O         -2.23327       -1.58640        0.49663
O         -1.13064        0.63859        1.66007
O         -5.02823       -1.08559        0.33960
C         -1.69983        0.45212       -0.71511
C         -2.77792       -0.60361       -0.38240
C         -1.39739        1.37043        0.47719
C         -2.05476        1.27831       -1.94220
C         -4.07695       -0.05495        0.20028
H         -3.01930       -1.14646       -1.30308
H         -2.26261        2.01613        0.66491
H         -0.54898        2.01715        0.22400
H         -1.21950        1.93226       -2.20987
H         -2.26449        0.62485       -2.79246
H         -2.93014        1.90649       -1.75714
H         -3.87762        0.42591        1.16963
H         -4.51732        0.68993       -0.46850
H         -0.55850       -1.12689       -0.53241
H         -1.91586       -1.10296        1.28007
H         -0.16919        0.61729        1.78625
H         -4.59427       -1.81439        0.79829
O          4.76774       -1.70550       -0.69734
H          4.88349       -1.91287       -1.62848
H          5.08426       -0.80022       -0.56584
S          2.50845        0.40457        0.35710
O          2.45352       -1.17647        0.46979
H          3.25045       -1.55449        0.00135
O          1.86477        0.68739       -1.05026
H          0.91411        0.33615       -1.07635
O          1.64308        0.90594        1.40671
O          3.88413        0.84434        0.27798

