31
142-526-93970-wb97xd.log	Energy: -800152.2163092
O          2.70955       -0.20327       -1.50937
O          1.25925        0.28206        1.83644
O          0.55290       -1.61032       -1.30748
O          2.74922        2.41388       -0.71218
C          2.40186       -0.54037       -0.15363
C          1.58212        0.60449        0.50243
C          1.53477       -1.79950       -0.28666
C          3.67016       -0.86131        0.62930
C          2.32006        1.94546        0.56843
H          0.67205        0.74530       -0.09882
H          1.01108       -2.02304        0.64419
H          2.16466       -2.65194       -0.56308
H          4.19184       -1.70214        0.16481
H          4.35337       -0.00758        0.62776
H          3.42807       -1.10934        1.66619
H          1.66368        2.67430        1.05428
H          3.21872        1.85043        1.18198
H          2.97035        0.73147       -1.53413
H          0.34937       -0.04614        1.86887
H          0.99087       -1.07597       -1.99063
H          2.01421        2.85533       -1.14691
O         -4.30462        1.77088       -0.89177
H         -4.70640        0.99826       -0.46712
H         -4.75700        2.54690       -0.55047
O         -1.94227       -1.32858       -0.91273
S         -2.25274       -0.47509        0.35743
O         -3.67934       -0.56200        0.59032
O         -1.31407       -0.80971        1.41183
O         -1.89617        1.01267       -0.08196
H         -0.93720       -1.43954       -1.05338
H         -2.71335        1.43754       -0.46654

