21
gfn2-274-274-wb97xd.log	Energy: -312834.5933646
O         -1.56281        0.21086        1.28705
O          0.76833       -1.24228        0.82410
O         -1.56287       -1.63110       -0.73386
O          3.00421        0.06097       -0.16802
C         -0.78637        0.52374        0.13183
C          0.67334        0.14303        0.47046
C         -1.35230       -0.26924       -1.05836
C         -0.90833        2.02090       -0.12823
C          1.70345        0.34475       -0.63233
H          0.97601        0.75089        1.33396
H         -0.70371       -0.15841       -1.93721
H         -2.33547        0.13523       -1.31661
H         -0.44406        2.59280        0.68026
H         -0.43340        2.30599       -1.07225
H         -1.96502        2.29488       -0.17386
H          1.45489       -0.28877       -1.49702
H          1.70861        1.38619       -0.96141
H         -2.01356       -0.62468        1.10315
H          0.33904       -1.35331        1.67897
H         -0.71285       -1.99294       -0.44643
H          2.97591       -0.81454        0.23408

