21
gfn2-1-1-wb97xd.log	Energy: -312835.2466145
O         -1.07072       -0.35637        1.31909
O         -0.76720        2.09816        0.19020
O          0.95969       -1.92439        0.45473
O          2.33784        0.25032       -0.41048
C         -0.80308       -0.30358       -0.07985
C         -0.03441        1.01793       -0.35518
C         -0.04297       -1.58078       -0.47936
C         -2.14098       -0.27035       -0.81307
C          1.38907        1.11647        0.20965
H          0.00485        1.17993       -1.44151
H          0.36600       -1.47491       -1.49278
H         -0.75520       -2.41115       -0.48609
H         -2.68420        0.64945       -0.58863
H         -1.98535       -0.32076       -1.89639
H         -2.75042       -1.12341       -0.50475
H          1.70728        2.16048        0.12379
H          1.39016        0.85469        1.27163
H         -0.36127       -0.88585        1.71236
H         -1.08608        1.79590        1.05226
H          1.74506       -1.40257        0.22951
H          2.52653        0.55839       -1.30079

