21
gfn2-2-2-wb97xd.log	Energy: -312836.0672124
O         -1.77517       -1.11710       -0.48146
O          0.79687       -1.64991       -0.76078
O         -0.00782        2.10696       -0.45510
O          2.21555        0.53978       -0.09554
C         -0.90925       -0.13205        0.10486
C          0.35652       -0.96979        0.40202
C         -0.70496        0.98721       -0.93705
C         -1.52126        0.41810        1.38740
C          1.58380       -0.22495        0.92016
H          0.06233       -1.69957        1.17229
H         -1.69845        1.34542       -1.23593
H         -0.22789        0.55621       -1.82795
H         -1.66570       -0.37965        2.12181
H         -0.89472        1.20422        1.81443
H         -2.49655        0.86807        1.17173
H          1.31795        0.46453        1.72399
H          2.29009       -0.96320        1.31862
H         -2.60693       -0.70505       -0.73353
H          0.01170       -2.00671       -1.19397
H          0.92822        1.85437       -0.39683
H          2.31540       -0.04758       -0.85606

