24
1-128-90085-wb97xd.log  Energy: -360798.1172012
O         -0.65931        0.13674       -1.41344
O          0.64342       -1.05542        0.92607
O         -1.67476       -1.98710       -0.12735
O          1.68721        1.29546       -0.59982
C         -1.09644        0.38789       -0.08676
C          0.06602        0.24758        0.93353
C         -2.16795       -0.68581        0.16236
C         -1.73509        1.77501        0.01842
C          1.19353        1.25950        0.72805
H         -0.35796        0.43907        1.93271
H         -3.04231       -0.46712       -0.46353
H         -2.48202       -0.69004        1.20985
H         -2.60176        1.82865       -0.64563
H         -2.06329        1.99459        1.04048
H         -1.03142        2.54946       -0.29631
H          0.83032        2.26282        0.96700
H          1.99746        1.02160        1.43634
H          0.20153        0.57648       -1.52071
H         -0.05144       -1.69399        0.68547
H         -1.35719       -1.94651       -1.04028
H          2.34439        0.57998       -0.69608
O          3.00865       -1.09972       -0.44674
H          3.78596       -1.36376        0.04983
H          2.22568       -1.31587        0.09746

