24
1-324-82044-wb97xd.log	Energy: -360797.4384794
O         -0.32941       -0.18019       -1.19203
O          0.62876       -0.97444        1.44657
O         -1.82412        0.11174        1.32139
O          2.16275       -1.32058       -0.78042
C          0.03291        0.77819       -0.19206
C          1.08464        0.18824        0.78647
C         -1.25659        1.15915        0.55637
C          0.57129        2.03821       -0.87743
C          2.38907       -0.23655        0.11561
H          1.31993        0.98217        1.51474
H         -1.98150        1.53089       -0.17913
H         -1.02782        1.97570        1.24921
H         -0.22998        2.52295       -1.44226
H          0.96771        2.75610       -0.15166
H          1.36356        1.78577       -1.58628
H          2.83261        0.57175       -0.46810
H          3.10329       -0.53109        0.89381
H          0.46791       -0.68916       -1.41487
H         -0.31324       -0.83948        1.65475
H         -2.37237       -0.42991        0.72187
H          1.80020       -2.03451       -0.23974
O         -2.86985       -1.15051       -0.87968
H         -3.03198       -2.08870       -0.99829
H         -1.97125       -0.96405       -1.21450

