31
1-161-31067-wb97xd.log	Energy: -800161.9270747
O          0.67203       -0.29274        1.03417
O          1.64039        0.48674       -1.65593
O         -0.12860       -1.46078       -1.47474
O          2.49384        1.65208        1.08391
C          1.60028       -1.06167        0.26546
C          2.43725       -0.12178       -0.64654
C          0.77825       -2.05814       -0.56252
C          2.50879       -1.85406        1.20957
C          3.25176        0.92305        0.12541
H          3.15482       -0.75200       -1.18629
H          0.18455       -2.67526        0.11866
H          1.46913       -2.71654       -1.10508
H          1.91481       -2.57613        1.77611
H          3.28526       -2.39580        0.66029
H          2.99262       -1.18871        1.92884
H          4.05358        0.43120        0.68128
H          3.71437        1.60037       -0.60218
H          1.16307        0.46005        1.41528
H          1.19678        1.28433       -1.30663
H          0.32840       -0.68941       -1.86561
H          1.90333        2.27660        0.62855
O          0.39180        2.64830       -0.44924
H         -0.46303        2.19237       -0.28867
H          0.18044        3.46711       -0.90526
O         -2.60446       -1.07356       -0.80962
S         -2.67528        0.14741        0.17976
O         -1.90763        1.25025       -0.40309
O         -4.04732        0.34702        0.54124
O         -1.90472       -0.36292        1.46266
H         -1.65525       -1.22801       -1.11054
H         -0.91897       -0.36825        1.30176

