31
20-267-71028-wb97xd.log	Energy: -800157.2453332
O          3.40165        0.64690       -1.36006
O          0.68128        1.32574       -0.63423
O          1.19704       -2.01611       -0.15074
O          0.33580       -0.45647        1.80671
C          2.68602       -0.03503       -0.33453
C          1.70370        0.98867        0.29989
C          2.00856       -1.23570       -1.02609
C          3.72651       -0.50295        0.67337
C          1.14927        0.70260        1.69526
H          2.30009        1.90176        0.41407
H          2.80457       -1.86889       -1.42872
H          1.40923       -0.87690       -1.87006
H          4.52004       -1.03502        0.14340
H          4.17687        0.34796        1.19278
H          3.28906       -1.18195        1.41064
H          1.98261        0.63357        2.40371
H          0.52501        1.54944        1.99317
H          2.75937        1.08517       -1.93132
H          0.08128        0.56319       -0.76304
H          0.30036       -2.03168       -0.51606
H          0.73482       -1.17790        1.26969
O         -1.49814        2.79985       -0.07733
H         -1.64501        3.62761       -0.54225
H         -0.59376        2.48617       -0.29442
O         -2.17012       -0.36237        1.33775
S         -2.48643       -0.54823       -0.18771
O         -1.19153       -0.68287       -0.88705
O         -3.46881       -1.57273       -0.38614
O         -3.13749        0.82086       -0.58358
H         -1.16837       -0.38001        1.52857
H         -2.53523        1.60129       -0.37695

