31
13-500-93521-wb97xd.log	Energy: -800152.6615585
O         -0.85549        0.31984        0.77914
O         -3.44850        1.03399        1.47245
O         -1.09745       -0.68598       -1.84854
O         -2.03741        1.78919       -1.18466
C         -1.93034       -0.60167        0.49313
C         -3.22241        0.23788        0.32520
C         -1.58978       -1.44062       -0.75655
C         -2.04328       -1.52792        1.69577
C         -3.25440        1.07845       -0.95574
H         -4.06909       -0.45767        0.28392
H         -2.49673       -1.96433       -1.08273
H         -0.85021       -2.19754       -0.47245
H         -2.38695       -0.97556        2.57173
H         -2.75865       -2.32989        1.48820
H         -1.07317       -1.98327        1.91570
H         -3.47613        0.43809       -1.81707
H         -4.05600        1.81407       -0.85405
H         -0.91434        1.03773        0.11786
H         -2.65181        1.54750        1.64718
H         -0.13226       -0.78443       -1.85376
H         -1.52959        1.22597       -1.78971
O          4.44642        1.82035        0.69117
H          4.45133        2.19215        1.57729
H          4.77693        0.91330        0.76172
O          1.54082       -0.51933        1.16969
S          2.32279       -0.49446       -0.19279
O          3.68343       -0.88573        0.10354
O          1.56839       -1.20023       -1.21155
O          2.28033        1.03482       -0.61128
H          0.58174       -0.20957        1.03640
H          3.01709        1.51276       -0.13622

