31
274-SAc-451-74707-wb97xd.log	Energy: -800154.4724065
O          3.07832       -1.47254        1.22354
O          0.95357       -1.84331       -0.48133
O          1.33827        1.69767        0.79773
O          0.63364        0.98377       -1.61220
C          2.64966       -0.35735        0.45000
C          1.99502       -0.95099       -0.83059
C          1.70236        0.43733        1.36762
C          3.88977        0.46002        0.11581
C          1.60842        0.00538       -1.95596
H          2.77632       -1.59083       -1.26055
H          2.23671        0.60291        2.30837
H          0.80565       -0.15679        1.58014
H          4.54892       -0.10034       -0.55365
H          3.62686        1.41327       -0.34976
H          4.43955        0.67036        1.03681
H          2.50675        0.51112       -2.32932
H          1.18471       -0.58481       -2.77133
H          2.37924       -2.13762        1.16356
H          0.15834       -1.36390       -0.20009
H          0.47878        1.96155        1.15796
H          0.93507        1.44241       -0.78953
O         -4.00643       -2.04966        0.08782
H         -3.09166       -2.29408        0.28600
H         -4.57473       -2.56395        0.66752
S         -2.03939        0.57520        0.18489
O         -3.59469        0.53115        0.32694
H         -3.91089       -0.41223        0.20171
O         -1.87981        0.81660       -1.35200
H         -0.87743        0.85136       -1.57080
O         -1.54004        1.70499        0.94163
O         -1.49074       -0.74592        0.51578

