31
1-SAc-379-80543-wb97xd.log	Energy: -800154.8485232
O          3.06973        1.49045       -1.17866
O          0.89884        1.78538        0.49587
O          1.38630       -1.71920       -0.81410
O          0.58643       -1.01908        1.57080
C          2.64993        0.35808       -0.42605
C          1.96238        0.91882        0.85104
C          1.73313       -0.44686       -1.36571
C          3.90109       -0.43807       -0.08207
C          1.56890       -0.06296        1.95102
H          2.71751        1.57397        1.30298
H          2.28424       -0.59104       -2.30025
H          0.82681        0.12877       -1.58984
H          4.53601        0.12492        0.60828
H          3.65019       -1.40438        0.36246
H          4.47145       -0.62067       -0.99637
H          2.46038       -0.58636        2.31572
H          1.14438        0.50750        2.77997
H          2.35565        2.14009       -1.13384
H          0.13900        1.27935        0.17349
H          0.52483       -1.97892       -1.17137
H          0.90336       -1.47312        0.75117
O         -3.63171        2.29675       -0.22521
H         -3.75876        2.81432        0.57480
H         -4.26940        1.56937       -0.19992
S         -2.21660       -0.66922       -0.18245
O         -1.56719        0.73007       -0.61857
H         -2.24423        1.45470       -0.46696
O         -1.91859       -0.72796        1.35112
H         -0.90919       -0.82971        1.51386
O         -3.65082       -0.57913       -0.33938
O         -1.45540       -1.67919       -0.88865

