31
12-SAc-547-97600-wb97xd.log	Energy: -800151.9763998
O          3.87175       -1.53926        0.06519
O          3.77278        1.11957       -0.62048
O          0.57128       -0.59430       -1.23309
O          1.14510        1.90457       -0.53818
C          2.62043       -0.87087        0.18018
C          2.94782        0.62761        0.42679
C          1.87194       -1.16641       -1.13342
C          1.90484       -1.48367        1.37566
C          1.79450        1.58551        0.69697
H          3.57453        0.62634        1.32654
H          1.75434       -2.24826       -1.21798
H          2.47817       -0.82666       -1.98202
H          2.42659       -1.23589        2.30467
H          0.86925       -1.14342        1.45093
H          1.90051       -2.57185        1.27171
H          1.08010        1.14618        1.39944
H          2.19804        2.50722        1.12949
H          4.43452       -0.99457       -0.50067
H          3.21077        1.55618       -1.27126
H          0.68019        0.37955       -1.17825
H          0.24683        2.20048       -0.33018
O         -5.20067       -0.82719       -0.65495
H         -6.06985       -0.45523       -0.82608
H         -5.06362       -0.80568        0.30353
S         -2.28337        0.25327        0.36495
O         -1.47745       -1.07947        0.20408
H         -0.64507       -0.95032       -0.37744
O         -2.93110        0.48980       -1.06104
H         -3.79577       -0.00566       -1.10548
O         -3.33164       -0.00810        1.32997
O         -1.36792        1.36141        0.56933

