37
7-SAc-82-89596-wb97xd.log	Energy: -896081.7139274
O         -3.08543       -1.18263       -1.70910
O         -0.65543       -1.69007       -0.47801
O         -2.00260        1.69839        0.23928
O         -0.68027        0.17412        1.83504
C         -2.79095       -0.49970       -0.49630
C         -1.81610       -1.41074        0.29876
C         -2.22337        0.87342       -0.90027
C         -4.11073       -0.33414        0.24582
C         -1.45759       -1.01097        1.72870
H         -2.33725       -2.37209        0.37979
H         -2.96191        1.33874       -1.56127
H         -1.29185        0.75100       -1.46671
H         -4.00281        0.33461        1.10289
H         -4.84646        0.09975       -0.43595
H         -4.49054       -1.30298        0.58322
H         -2.37213       -0.90399        2.32271
H         -0.86469       -1.81566        2.17226
H         -2.25620       -1.53984       -2.05103
H         -0.13567       -0.87913       -0.64015
H         -1.48024        2.48655       -0.03222
H         -1.15412        0.89282        1.32961
O          1.65137       -2.88592        0.54684
H          1.81446       -2.22429        1.23061
H          0.77493       -2.64998        0.18548
O          3.56943       -2.00439       -1.09471
H          2.87808       -2.48731       -0.57538
H          3.38620       -2.14638       -2.02742
O         -0.28398        3.63401       -0.48945
H          0.59773        3.26921       -0.29591
H         -0.28845        4.53640       -0.16203
S          2.06534        0.82690        0.02016
O          1.77885        0.04749        1.36000
H          0.77039        0.11962        1.59469
O          3.51350        0.38712       -0.29297
H          3.55497       -0.58474       -0.64967
O          1.13763        0.33125       -0.99997
O          2.06350        2.25814        0.25975

