37
2-SAc-341-95596-wb97xd.log	Energy: -896080.4093666
O         -3.29950       -0.89093       -1.62520
O         -0.76367       -1.56428       -0.64474
O         -1.83954        1.87526        0.29807
O         -0.77385        0.09998        1.93064
C         -2.84816       -0.31357       -0.40267
C         -1.86832       -1.34109        0.22940
C         -2.22905        1.04800       -0.78992
C         -4.07924       -0.12418        0.47204
C         -1.42693       -1.13180        1.67641
H         -2.42175       -2.28828        0.22459
H         -2.99669        1.59102       -1.34578
H         -1.37983        0.88733       -1.46660
H         -4.49421       -1.09104        0.77234
H         -3.84463        0.46171        1.36406
H         -4.84208        0.41088       -0.09888
H         -2.30821       -1.16591        2.32377
H         -0.77499       -1.96802        1.95370
H         -2.52177       -1.21338       -2.09736
H         -0.20537       -0.76468       -0.72743
H         -1.42054        1.30870        0.98623
H          0.18721        0.03296        1.77855
O          3.58254       -2.20885       -0.00886
H          3.81574       -2.30856        0.91893
H          2.71682       -2.67269       -0.12725
O          1.19620       -3.41281       -0.25676
H          1.11555       -4.10732       -0.91522
H          0.43652       -2.80494       -0.39391
O          0.17093        3.52554       -0.25095
H          0.06468        4.32607        0.26927
H         -0.62758        2.95566       -0.08584
S          2.08978        0.76093       -0.09260
O          3.44518        0.24165       -0.63909
H          3.53966       -0.75976       -0.40649
O          2.37044        2.28421       -0.09279
H          1.48260        2.80982       -0.16427
O          0.99378        0.47661       -1.02207
O          1.88655        0.24378        1.26270

